# vtk DataFile Version 2.0
File written by itkVTKPolyDataWriter
ASCII
DATASET POLYDATA
POINTS 642 float
0 0 100
27.6393 -85.0651 44.7214
89.4427 0 44.7214
27.6393 85.0651 44.7214
-72.3607 52.5731 44.7214
-72.3607 -52.5731 44.7214
-27.6393 -85.0651 -44.7214
72.3607 -52.5731 -44.7214
72.3607 52.5731 -44.7214
-27.6393 85.0651 -44.7214
-89.4427 -2.35e-05 -44.7214
0 0 -100
-42.5325 30.9017 85.0651
-26.2866 80.9017 52.5731
16.246 50 85.0651
-42.5325 -30.9017 85.0651
-85.0651 -1.05e-05 52.5731
16.246 -50 85.0651
-26.2866 -80.9017 52.5731
52.5731 0 85.0651
68.8191 -50 52.5731
68.8191 50 52.5731
58.7785 80.9017 0
95.1057 30.9017 0
-1.23e-05 100 0
26.2865 80.9017 -52.5731
-58.7785 80.9017 0
-95.1057 30.9017 0
-68.8191 50 -52.5731
-95.1056 -30.9017 0
-58.7785 -80.9017 0
-68.8191 -50 -52.5731
5.3e-06 -100 0
58.7785 -80.9017 0
26.2866 -80.9017 -52.5731
95.1057 -30.9017 0
85.0651 1.75e-05 -52.5731
-16.246 50 -85.0651
42.5325 30.9017 -85.0651
-52.5731 -1.38e-05 -85.0651
-16.246 -50 -85.0651
42.5325 -30.9017 -85.0651
-22.1077 16.0622 96.1938
-13.8197 42.5325 89.4427
8.4444 25.9892 96.1938
-22.1077 -16.0622 96.1938
-44.7214 -4.7e-06 89.4427
8.4444 -25.9892 96.1938
-13.8197 -42.5325 89.4427
27.3267 0 96.1938
36.1803 -26.2866 89.4427
36.1803 26.2866 89.4427
44.9186 86.2668 23.2454
67.082 68.8191 27.6393
50.1375 70.2046 50.5721
14.3665 96.1938 23.2454
30.9017 95.1057 0
0.703141 86.2668 50.5721
-13.8197 95.1057 27.6393
-87.0463 43.3888 23.2454
-80.9017 58.7785 0
-68.164 69.378 23.2454
-81.8274 27.3266 50.5721
-94.7214 16.246 27.6393
-68.164 -69.3781 23.2454
-80.9017 -58.7785 0
-87.0463 -43.3889 23.2454
-51.2752 -69.3781 50.5721
-44.7214 -85.0651 27.6393
44.9186 -86.2668 23.2454
30.9017 -95.1057 0
14.3665 -96.1938 23.2454
50.1375 -70.2046 50.5721
67.082 -68.8191 27.6393
95.9253 16.0622 23.2454
100 1.1e-05 0
95.9253 -16.0622 23.2454
51.2752 69.3781 -50.5721
36.1803 58.7785 -72.3607
59.7196 43.3889 -67.4609
-50.1375 70.2046 -50.5721
-44.7214 52.5731 -72.3607
-22.8109 70.2046 -67.4609
-82.2619 -25.9892 -50.5721
-63.8197 -26.2866 -72.3607
-73.8175 -1.94e-05 -67.4609
-0.703132 -86.2668 -50.5721
5.27865 -68.8191 -72.3607
-22.8109 -70.2046 -67.4609
81.8274 -27.3266 -50.5721
67.082 -16.246 -72.3607
59.7196 -43.3888 -67.4609
-59.7196 43.3889 67.4609
-51.2752 69.378 50.5721
-36.1803 58.7785 72.3607
-5.27864 68.8191 72.3607
22.8109 70.2046 67.4609
-59.7196 -43.3889 67.4609
-81.8274 -27.3267 50.5721
-67.082 -16.246 72.3607
-67.082 16.246 72.3607
22.8109 -70.2046 67.4609
0.703146 -86.2668 50.5721
-5.27864 -68.8191 72.3607
-36.1803 -58.7785 72.3607
73.8175 0 67.4609
82.2619 -25.9892 50.5721
63.8197 -26.2866 72.3607
44.7214 -52.5731 72.3607
44.7214 52.5731 72.3607
63.8197 26.2866 72.3607
82.2619 25.9892 50.5721
68.164 69.3781 -23.2454
87.0463 43.3889 -23.2454
80.9017 58.7785 0
86.1803 42.5325 27.6393
-14.3665 96.1938 -23.2454
-0.703163 86.2668 -50.5721
13.8196 95.1057 -27.6393
44.7213 85.0651 -27.6393
-44.7214 85.0651 27.6393
-30.9017 95.1056 0
-44.9186 86.2668 -23.2454
-95.9253 16.0622 -23.2454
-82.2619 25.9892 -50.5721
-86.1803 42.5325 -27.6393
-67.0821 68.8191 -27.6393
-94.7214 -16.246 27.6393
-100 -2.04e-05 0
-95.9253 -16.0622 -23.2454
-44.9186 -86.2669 -23.2454
-50.1375 -70.2047 -50.5721
-67.082 -68.8191 -27.6393
-86.1803 -42.5326 -27.6393
-13.8197 -95.1057 27.6393
-30.9017 -95.1057 0
-14.3665 -96.1938 -23.2454
68.164 -69.378 -23.2454
51.2752 -69.378 -50.5721
44.7214 -85.0651 -27.6393
13.8197 -95.1057 -27.6393
86.1803 -42.5325 27.6393
80.9017 -58.7785 0
87.0463 -43.3888 -23.2454
81.8274 27.3267 -50.5721
94.7214 16.246 -27.6393
94.7214 -16.246 -27.6393
5.27863 68.8191 -72.3607
13.8197 42.5325 -89.4427
-8.44441 25.9892 -96.1938
22.1077 16.0622 -96.1938
-63.8197 26.2865 -72.3607
-36.1803 26.2865 -89.4427
-27.3267 -7.2e-06 -96.1938
-44.7214 -52.5731 -72.3607
-36.1803 -26.2866 -89.4427
-8.4444 -25.9892 -96.1938
36.1803 -58.7785 -72.3607
13.8197 -42.5325 -89.4427
22.1077 -16.0622 -96.1938
67.082 16.246 -72.3607
44.7214 9.4e-06 -89.4427
-11.1606 8.10863 99.0439
-6.92153 21.3023 97.4593
4.26296 13.12 99.0439
-11.1606 -8.10863 99.0439
-22.3985 -2.3e-06 97.4593
4.26296 -13.12 99.0439
-6.92153 -21.3023 97.4593
13.7952 0 99.0439
18.1208 -13.1655 97.4593
18.1208 13.1655 97.4593
36.6292 86.4929 34.3115
48.1533 79.2649 37.3943
39.2638 78.3843 48.1067
21.2056 91.5043 34.3115
30.0325 92.4305 23.5512
14.308 86.4929 48.1067
7.63392 92.4305 37.3943
-80.4729 48.4442 34.3115
-78.6261 57.1252 23.5512
-70.9406 61.5642 34.3115
-77.8382 40.3355 48.1067
-85.5476 35.8229 37.3943
-70.9406 -61.5642 34.3115
-78.626 -57.1252 23.5512
-80.4729 -48.4442 34.3115
-62.4147 -61.5642 48.1067
-60.5052 -70.2907 37.3943
36.6292 -86.4929 34.3115
30.0325 -92.4305 23.5512
21.2056 -91.5043 34.3115
39.2638 -78.3843 48.1067
48.1533 -79.2649 37.3943
93.5787 8.10863 34.3115
97.1871 6e-06 23.5512
93.5787 -8.10863 34.3115
62.4147 61.5642 -48.1067
56.2275 57.1252 -59.7928
66.6777 48.4442 -56.6326
-39.2638 78.3843 -48.1067
-36.954 71.1282 -59.7928
-25.4686 78.3843 -56.6326
-86.6811 -13.1201 -48.1067
-79.0663 -13.1656 -59.7928
-82.4181 -2.16e-05 -56.6326
-14.308 -86.4929 -48.1067
-11.9117 -79.2649 -59.7928
-25.4686 -78.3843 -56.6326
77.8383 -40.3355 -48.1067
71.7045 -35.8229 -59.7928
66.6777 -48.4442 -56.6326
-51.6196 37.5039 76.9992
-48.446 51.6122 70.634
-39.847 45.3991 79.694
1.22828 46.843 88.3415
-9.67772 56.4254 81.9909
5.55202 60.1501 79.694
8.8568 70.231 70.634
19.7169 60.6825 76.9992
-51.6196 -37.5039 76.9992
-64.0567 -30.1259 70.634
-55.4905 -23.8677 79.694
-44.1708 15.6434 88.3415
-56.6543 8.23235 81.9909
-55.4905 23.8677 79.694
-64.0567 30.1259 70.634
19.7169 -60.6825 76.9992
8.8568 -70.231 70.634
5.55203 -60.1501 79.694
-28.5273 -37.1748 88.3415
-25.3366 -51.3376 81.9909
-39.847 -45.3991 79.694
-48.446 -51.6122 70.634
63.8054 0 76.9992
69.5305 -13.2792 70.634
58.9218 -13.3071 79.694
26.5399 -38.6187 88.3415
40.9955 -39.9607 81.9909
30.8637 -51.9258 79.694
34.1154 -62.024 70.634
34.1154 62.024 70.634
30.8637 51.9258 79.694
44.9299 13.3071 88.3415
50.6732 26.6405 81.9909
58.9218 13.3071 79.694
69.5305 13.2792 70.634
64.084 75.8652 -11.7349
75.3039 64.7412 -11.743
70.7107 70.7107 0
68.7976 60.1501 40.6061
77.6629 56.4254 28.0114
78.4658 46.843 40.6061
85.0924 34.6153 39.5103
76.2697 38.3614 52.0705
-7.25259 99.0439 -11.7349
-0.276249 96.6393 -25.7056
6.99595 98.7688 -13.9919
45.399 89.1007 0
38.3206 91.2983 -14.0057
52.395 84.0178 -13.9919
57.0266 78.0204 -25.7056
-39.1553 75.8652 52.0705
-48.4949 78.0204 39.5103
-35.9465 84.0178 40.6061
-6.99597 98.7688 13.9919
-22.6617 96.3861 14.0057
-15.6435 98.7688 0
-22.8683 96.6393 -11.743
-96.4375 23.7086 -11.7349
-91.9948 29.6004 -25.7056
-91.7729 37.1748 -13.9919
-70.7107 70.7107 0
-74.9881 64.6578 -14.0057
-63.7147 75.7935 -13.9919
-56.5797 78.3452 -25.7056
-52.3491 84.3911 -11.7349
-84.2518 -13.7952 52.0705
-89.1876 -22.0117 39.5103
-91.0137 -8.22426 40.6061
-96.0966 23.8677 13.9919
-98.6715 8.23234 14.0057
-98.7688 15.6434 0
-98.9761 8.11416 -11.743
-52.3491 -84.3912 -11.7349
-56.5796 -78.3452 -25.7056
-63.7147 -75.7935 -13.9919
-89.1006 -45.3991 0
-84.6658 -51.3376 -14.0057
-91.7729 -37.1748 -13.9919
-91.9948 -29.6005 -25.7056
-96.4375 -23.7087 -11.7349
-12.9152 -84.3912 52.0704
-6.6261 -91.6244 39.5103
-20.3031 -89.1007 40.6061
-52.395 -84.0178 13.9919
-38.3206 -91.2983 14.0057
-45.399 -89.1007 0
-38.3023 -91.6244 -11.743
64.084 -75.8652 -11.7349
57.0266 -78.0204 -25.7056
52.395 -84.0178 -13.9919
15.6435 -98.7688 0
22.6617 -96.3861 -14.0057
6.99597 -98.7688 -13.9919
-0.276224 -96.6393 -25.7056
-7.25257 -99.0439 -11.7349
76.2697 -38.3614 52.0705
85.0924 -34.6153 39.5103
78.4658 -46.843 40.6061
63.7147 -75.7935 13.9919
74.9881 -64.6578 14.0057
70.7107 -70.7107 0
75.3039 -64.7412 -11.743
91.9552 37.5039 -11.7349
91.824 30.1259 -25.7056
96.0966 23.8677 -13.9919
98.7688 -15.6434 0
98.6715 -8.23234 -14.0057
96.0966 -23.8677 -13.9919
91.824 -30.1259 -25.7056
91.9552 -37.5038 -11.7349
12.9152 84.3911 -52.0705
2.3114 78.3452 -62.1023
15.9793 75.7935 -63.2456
39.847 45.3991 -79.694
25.3366 51.3376 -81.9909
28.5273 37.1748 -88.3415
18.1495 29.6005 -93.7785
32.6321 23.7086 -91.5043
-76.2697 38.3614 -52.0705
-73.7964 26.4083 -62.1023
-67.1461 38.6187 -63.2455
-30.8637 51.9258 -79.694
-40.9955 39.9607 -81.9909
-26.5399 38.6187 -88.3415
-22.5432 26.4083 -93.7785
-12.4644 38.3614 -91.5043
-60.0525 -60.6825 -52.0704
-47.9201 -62.024 -62.1023
-57.4779 -51.9259 -63.2456
-58.9218 -13.3071 -79.694
-50.6732 -26.6405 -81.9909
-44.9299 -13.3071 -88.3415
-32.082 -13.2793 -93.7785
-40.3355 -1.06e-05 -91.5043
39.1553 -75.8652 -52.0705
44.1802 -64.7412 -62.1023
31.6228 -70.7107 -63.2456
-5.55202 -60.1501 -79.694
9.67773 -56.4254 -81.9909
-1.22828 -46.843 -88.3415
2.71544 -34.6153 -93.7785
-12.4644 -38.3614 -91.5043
84.2518 13.7952 -52.0704
75.2249 22.0117 -62.1023
77.0218 8.22426 -63.2456
55.4905 -23.8677 -79.694
56.6543 -8.23235 -81.9909
44.1708 -15.6434 -88.3415
33.7602 -8.11418 -93.7785
32.6321 -23.7086 -91.5043
-32.6321 23.7086 91.5043
-28.5273 37.1748 88.3415
-18.1495 29.6005 93.7785
-2.71544 34.6153 93.7785
12.4644 38.3614 91.5043
-32.6321 -23.7086 91.5043
-44.1708 -15.6435 88.3415
-33.7602 -8.11419 93.7785
-33.7602 8.11418 93.7785
12.4644 -38.3614 91.5043
1.22828 -46.843 88.3415
-2.71543 -34.6153 93.7785
-18.1495 -29.6005 93.7785
40.3355 0 91.5043
44.9299 -13.3071 88.3415
32.082 -13.2792 93.7785
22.5432 -26.4083 93.7785
26.5399 38.6187 88.3415
22.5432 26.4083 93.7785
32.082 13.2792 93.7785
52.3491 84.3912 11.7349
63.7147 75.7935 13.9919
56.5796 78.3452 25.7056
59.2161 70.231 39.5103
60.0525 60.6825 52.0705
7.25257 99.0439 11.7349
15.6434 98.7688 0
22.8682 96.6393 11.743
38.3023 91.6244 11.743
-12.9152 84.3911 52.0705
-20.3031 89.1006 40.6061
-6.62611 91.6244 39.5103
0.276226 96.6393 25.7056
-91.9552 37.5038 11.7349
-89.1007 45.399 0
-84.8427 51.6121 11.743
-75.3039 64.7412 11.743
-64.084 75.8652 11.7349
-84.2518 13.7952 52.0705
-91.0137 8.22423 40.6061
-89.1876 22.0117 39.5103
-91.824 30.1259 25.7056
-64.084 -75.8652 11.7349
-70.7107 -70.7107 0
[...]
POINT_DATA 642
SCALARS double double
LOOKUP_TABLE default
0.161355 
-0.557748 1.10273 0.505766 
-0.860212 0.445017 0.502948 
2.29562 -0.547729 0.75485 
0.184396 0.267843 -0.119636 
0.385421 0.950779 0.309513 
0.100058 -0.0414193 1.30954 
-0.505407 0.304509 -0.730117 
-0.280051 -0.20873 -0.504628 
-0.026447 -0.739866 1.51014 
1.84821 0.643339 0.40721 
-0.035605 0.262649 0.936621 
-0.533813 -0.146622 0.100349 
-0.494011 0.727557 -0.409254 
-0.0490521 0.506917 -0.412496 
0.785407 1.15537 0.582907 
0.645256 0.36302 0.526766 
-1.24851 -1.57951 -0.177488 
-1.13943 -0.274384 -0.487821 
0.44594 -0.381952 -0.0474241 
-0.018342 -1.07888 0.562235 
-0.276171 -0.738015 -0.0515917 
-0.4484 0.055418 -0.767409 
1.82664 -0.268922 0.132275 
-1.18716 0.37518 -0.548939 
-0.447662 0.125962 -0.313592 
0.0157127 -0.610368 0.26483 
-0.402143 1.19025 1.15032 
0.308586 0.435875 0.0691066 
-0.0765844 -1.12565 0.190454 
-0.305557 0.0401408 0.713704 
-0.570488 -0.426335 1.00077 
0.734414 -0.607811 1.46576 
0.156656 -0.65024 0.618131 
0.334178 -0.640915 -0.0282909 
-0.68166 0.0172719 0.0562489 
1.3916 1.01942 0.539414 
-0.522072 -0.863694 0.860908 
0.196951 -0.270969 0.463647 
0.733076 -0.954289 -0.524706 
-0.370398 -1.23552 0.00690031 
-0.504054 1.83573 2.53516 
0.319766 2.2475 1.5868 
-0.477043 0.763836 1.15343 
-0.209073 1.01963 0.432182 
0.00975312 1.26035 -0.131409 
0.362196 0.750428 -0.434772 
-0.708884 -0.753971 0.842126 
0.13249 -0.268549 -0.634208 
0.172476 -0.62246 -0.16462 
0.650349 -1.28128 0.936329 
-0.693219 -1.06086 -0.605216 
-0.480161 -0.271707 0.629867 
-0.00128065 0.49018 0.050748 
-0.228543 1.30386 -0.133605 
0.122385 -0.258251 1.07626 
0.813729 0.773338 0.610317 
-0.416994 -0.213225 0.0650126 
-0.0467926 -1.01947 0.00377518 
0.583797 -0.131668 0.224879 
0.406327 -1.38519 -1.24502 
-0.861783 -0.290379 -1.28693 
0.690385 -0.270889 -0.723911 
1.37794 1.37518 -0.503355 
0.16445 0.716963 -1.24671 
-1.15113 0.472296 0.140672 
0.325305 -0.103552 -0.241896 
-0.345118 1.64954 0.665104 
1.08517 -0.761638 -0.264228 
-0.759961 -0.16366 -0.826897 
-0.690529 1.49656 0.797054 
0.807743 -0.288501 0.365188 
0.581365 0.112772 -0.603494 
0.0466173 0.703406 1.28434 
1.30873 1.2368 0.355856 
0.855763 0.742596 0.905492 
0.209728 -0.0589562 -0.844276 
-0.901351 0.305705 0.47562 
1.24842 0.159314 -0.629311 
0.527559 0.11311 -1.20701 
-0.949338 -0.168723 0.622091 
0.434384 0.615093 -0.024423 
-0.245854 -0.386615 -0.370532 
0.683314 0.159328 0.730625 
-0.559887 0.572713 0.0634976 
0.727141 -0.0895903 -0.609283 
-0.823451 -0.843687 -1.10719 
-1.35228 -0.381061 0.544554 
1.83924 1.39226 0.747823 
-0.14456 0.603338 0.229129 
-0.609134 2.62826 2.64423 
2.31092 -0.940646 0.985622 
0.142301 1.62015 0.615252 
0.0804018 -0.607947 -0.442471 
0.650441 0.342699 1.65317 
2.11399 0.110369 0.400499 
0.979624 -0.496138 0.50421 
-0.181987 -0.0487518 1.19774 
0.280569 0.367178 0.855482 
-0.997141 -0.679232 -0.527395 
-0.52345 0.148172 -0.178207 
-0.775052 -0.938578 -0.67046 
-0.496262 -0.494642 -0.134051 
0.5822 0.411813 0.346171 
0.739549 -0.172723 1.47046 
1.15277 -0.1871 -0.0121055 
-0.0408018 -0.464733 -0.480861 
-0.801845 -0.540794 -0.380975 
0.46644 -0.853475 -0.276477 
0.393472 0.644653 0.973446 
1.72789 2.03815 1.62774 
-0.286222 1.29493 0.364374 
0.282714 -0.635644 -1.71126 
-0.849251 -0.063715 -0.0995491 
-0.632741 0.111747 -0.616484 
-0.487772 0.0191015 -0.717827 
-0.46831 -0.245923 -0.571095 
-0.337675 0.76749 -0.0995147 
-0.0904173 0.329963 -0.469137 
-1.1715 -0.167701 -0.24036 
1.24759 0.0448022 -0.108139 
0.678825 -0.332822 0.450102 
0.622237 1.34205 1.28761 
-0.492441 -0.506909 0.576615 
0.439662 -0.296189 0.190416 
0.0167424 -0.121406 -1.20343 
-0.596437 -1.6041 -0.747412 
0.345362 0.658558 -0.49503 
-1.25307 -0.00517449 -1.23961 
-1.16561 -0.976856 -0.0231694 
0.397779 0.192569 -0.755893 
-0.637547 -0.580359 -0.2711 
-0.140916 0.229226 1.30121 
0.0379286 -1.09096 -0.825092 
-0.455005 -0.750255 -0.450323 
-0.483493 -0.444157 0.840045 
-0.559746 -0.84841 0.0704895 
1.99064 1.5722 1.38314 
-0.844741 0.802297 -0.257126 
0.23041 -1.04377 -0.269808 
0.383489 0.118249 -0.567781 
-0.275709 0.0839289 -0.29376 
0.0336892 0.215413 0.0650273 
-1.0208 -0.352497 -0.677682 
-0.00697783 -0.431485 1.19506 
1.75955 0.964102 0.248832 
-0.422233 0.805368 -0.364591 
-0.0187468 0.579678 0.571604 
-1.0195 -0.446819 -0.800475 
-0.713366 -0.450494 0.339061 
0.773489 0.286974 -0.155223 
-0.0812813 -0.400726 -0.322832 
-0.384071 0.706215 1.40968 
0.814215 0.0819134 -0.0340936 
-0.178403 0.886207 0.972143 
-0.115284 -0.766876 -0.232763 
0.949017 0.931646 -0.462308 
0.07108 -0.0859848 -0.0513494 
0.257796 -0.749128 0.167015 
-0.335252 -0.328473 0.140197 
-0.532206 -0.220161 0.743116 
0.259396 0.097609 1.15956 
1.53259 1.54384 1.78945 
1.18191 -0.114275 0.673266 
1.19945 0.819235 -0.444452 
-0.071331 -0.370194 -0.898823 
-0.63655 -0.657464 -0.798501 
-0.105771 0.345328 0.971917 
-0.252315 -0.446713 -0.471652 
-0.180701 0.223952 0.738533 
0.682933 0.486169 0.573511 
0.754488 -0.737674 -0.616975 
-0.522277 0.51632 0.363141 
-0.380405 -0.898555 -0.835137 
-0.649281 0.430925 0.945799 
0.555281 -0.794674 0.23126 
-0.551409 -0.447573 0.263819 
-0.0588689 1.61216 1.69557 
0.692194 1.3052 1.90405 
1.81058 1.91026 1.89644 
1.49414 1.78204 2.31498 
-0.828662 -0.289237 0.724392 
-0.88058 -0.330506 1.38134 
1.82978 2.03581 0.781115 
0.506446 0.0572256 1.01967 
0.149517 0.416051 1.21267 
1.24417 0.961822 0.276324 
-0.184817 0.914913 1.29107 
1.08829 0.51988 1.08687 
0.0926719 -0.293017 0.15194 
0.939647 2.06877 0.894995 
1.18864 -0.0155442 0.085018 
-0.815369 -0.593643 -0.00177727 
-0.896743 0.167262 0.388515 
0.205637 0.0905871 0.452498 
0.0714938 -0.168878 0.0669721 
0.93386 1.11357 -0.388131 
-0.151605 -0.104521 0.150205 
-0.105566 0.25482 0.219562 
-0.337205 -0.0387349 -0.0265927 
-0.0087575 -0.179169 0.360479 
0.465073 -0.0504333 0.57925 
-0.182736 -0.633967 -0.692418 
-0.420655 -0.771952 0.265838 
0.729907 -0.367385 -0.49694 
-1.0825 -0.60453 0.09303 
0.441675 0.600297 0.766127 
-0.635135 -0.600325 0.648027 
0.47533 0.259607 0.691349 
-0.760882 -0.0901847 0.293409 
0.30687 0.80462 1.12274 
0.481061 0.00988994 -0.132126 
-0.899601 -1.27535 0.0826007 
1.2517 1.33973 1.74533 
1.48622 -0.458169 
