# vtk DataFile Version 3.0
vtk output
ASCII
DATASET POLYDATA
POINTS 642 float
0 0 1 0.276393 -0.850651 0.447214 0.894427 0 0.447214 
0.276393 0.850651 0.447214 -0.723607 0.525731 0.447214 -0.723607 -0.525731 0.447214 
-0.276393 -0.850651 -0.447214 0.723607 -0.525731 -0.447214 0.723607 0.525731 -0.447214 
-0.276393 0.850651 -0.447214 -0.894427 -2.35e-07 -0.447214 0 0 -1 
-0.425325 0.309017 0.850651 -0.262866 0.809017 0.525731 0.16246 0.5 0.850651 
-0.425325 -0.309017 0.850651 -0.850651 -1.05e-07 0.525731 0.16246 -0.5 0.850651 
-0.262866 -0.809017 0.525731 0.525731 0 0.850651 0.688191 -0.5 0.525731 
0.688191 0.5 0.525731 0.587785 0.809017 0 0.951057 0.309017 0 
-1.23e-07 1 0 0.262865 0.809017 -0.525731 -0.587785 0.809017 0 
-0.951057 0.309017 0 -0.688191 0.5 -0.525731 -0.951056 -0.309017 0 
-0.587785 -0.809017 0 -0.688191 -0.5 -0.525731 5.3e-08 -1 0 
0.587785 -0.809017 0 0.262866 -0.809017 -0.525731 0.951057 -0.309017 0 
0.850651 1.75e-07 -0.525731 -0.16246 0.5 -0.850651 0.425325 0.309017 -0.850651 
-0.525731 -1.38e-07 -0.850651 -0.16246 -0.5 -0.850651 0.425325 -0.309017 -0.850651 
-0.221077 0.160622 0.961938 -0.138197 0.425325 0.894427 0.084444 0.259892 0.961938 
-0.221077 -0.160622 0.961938 -0.447214 -4.7e-08 0.894427 0.084444 -0.259892 0.961938 
-0.138197 -0.425325 0.894427 0.273267 0 0.961938 0.361803 -0.262866 0.894427 
0.361803 0.262866 0.894427 0.449186 0.862668 0.232454 0.67082 0.688191 0.276393 
0.501375 0.702046 0.505721 0.143665 0.961938 0.232454 0.309017 0.951057 0 
0.00703141 0.862668 0.505721 -0.138197 0.951057 0.276393 -0.870463 0.433888 0.232454 
-0.809017 0.587785 0 -0.68164 0.69378 0.232454 -0.818274 0.273266 0.505721 
-0.947214 0.16246 0.276393 -0.68164 -0.693781 0.232454 -0.809017 -0.587785 0 
-0.870463 -0.433889 0.232454 -0.512752 -0.693781 0.505721 -0.447214 -0.850651 0.276393 
0.449186 -0.862668 0.232454 0.309017 -0.951057 0 0.143665 -0.961938 0.232454 
0.501375 -0.702046 0.505721 0.67082 -0.688191 0.276393 0.959253 0.160622 0.232454 
1 1.1e-07 0 0.959253 -0.160622 0.232454 0.512752 0.693781 -0.505721 
0.361803 0.587785 -0.723607 0.597196 0.433889 -0.674609 -0.501375 0.702046 -0.505721 
-0.447214 0.525731 -0.723607 -0.228109 0.702046 -0.674609 -0.822619 -0.259892 -0.505721 
-0.638197 -0.262866 -0.723607 -0.738175 -1.94e-07 -0.674609 -0.00703132 -0.862668 -0.505721 
0.0527865 -0.688191 -0.723607 -0.228109 -0.702046 -0.674609 0.818274 -0.273266 -0.505721 
0.67082 -0.16246 -0.723607 0.597196 -0.433888 -0.674609 -0.597196 0.433889 0.674609 
-0.512752 0.69378 0.505721 -0.361803 0.587785 0.723607 -0.0527864 0.688191 0.723607 
0.228109 0.702046 0.674609 -0.597196 -0.433889 0.674609 -0.818274 -0.273267 0.505721 
-0.67082 -0.16246 0.723607 -0.67082 0.16246 0.723607 0.228109 -0.702046 0.674609 
0.00703146 -0.862668 0.505721 -0.0527864 -0.688191 0.723607 -0.361803 -0.587785 0.723607 
0.738175 0 0.674609 0.822619 -0.259892 0.505721 0.638197 -0.262866 0.723607 
0.447214 -0.525731 0.723607 0.447214 0.525731 0.723607 0.638197 0.262866 0.723607 
0.822619 0.259892 0.505721 0.68164 0.693781 -0.232454 0.870463 0.433889 -0.232454 
0.809017 0.587785 0 0.861803 0.425325 0.276393 -0.143665 0.961938 -0.232454 
-0.00703163 0.862668 -0.505721 0.138196 0.951057 -0.276393 0.447213 0.850651 -0.276393 
-0.447214 0.850651 0.276393 -0.309017 0.951056 0 -0.449186 0.862668 -0.232454 
-0.959253 0.160622 -0.232454 -0.822619 0.259892 -0.505721 -0.861803 0.425325 -0.276393 
-0.670821 0.688191 -0.276393 -0.947214 -0.16246 0.276393 -1 -2.04e-07 0 
-0.959253 -0.160622 -0.232454 -0.449186 -0.862669 -0.232454 -0.501375 -0.702047 -0.505721 
-0.67082 -0.688191 -0.276393 -0.861803 -0.425326 -0.276393 -0.138197 -0.951057 0.276393 
-0.309017 -0.951057 0 -0.143665 -0.961938 -0.232454 0.68164 -0.69378 -0.232454 
0.512752 -0.69378 -0.505721 0.447214 -0.850651 -0.276393 0.138197 -0.951057 -0.276393 
0.861803 -0.425325 0.276393 0.809017 -0.587785 0 0.870463 -0.433888 -0.232454 
0.818274 0.273267 -0.505721 0.947214 0.16246 -0.276393 0.947214 -0.16246 -0.276393 
0.0527863 0.688191 -0.723607 0.138197 0.425325 -0.894427 -0.0844441 0.259892 -0.961938 
0.221077 0.160622 -0.961938 -0.638197 0.262865 -0.723607 -0.361803 0.262865 -0.894427 
-0.273267 -7.2e-08 -0.961938 -0.447214 -0.525731 -0.723607 -0.361803 -0.262866 -0.894427 
-0.084444 -0.259892 -0.961938 0.361803 -0.587785 -0.723607 0.138197 -0.425325 -0.894427 
0.221077 -0.160622 -0.961938 0.67082 0.16246 -0.723607 0.447214 9.4e-08 -0.894427 
-0.111606 0.0810863 0.990439 -0.0692153 0.213023 0.974593 0.0426296 0.1312 0.990439 
-0.111606 -0.0810863 0.990439 -0.223985 -2.3e-08 0.974593 0.0426296 -0.1312 0.990439 
-0.0692153 -0.213023 0.974593 0.137952 0 0.990439 0.181208 -0.131655 0.974593 
0.181208 0.131655 0.974593 0.366292 0.864929 0.343115 0.481533 0.792649 0.373943 
0.392638 0.783843 0.481067 0.212056 0.915043 0.343115 0.300325 0.924305 0.235512 
0.14308 0.864929 0.481067 0.0763392 0.924305 0.373943 -0.804729 0.484442 0.343115 
-0.786261 0.571252 0.235512 -0.709406 0.615642 0.343115 -0.778382 0.403355 0.481067 
-0.855476 0.358229 0.373943 -0.709406 -0.615642 0.343115 -0.78626 -0.571252 0.235512 
-0.804729 -0.484442 0.343115 -0.624147 -0.615642 0.481067 -0.605052 -0.702907 0.373943 
0.366292 -0.864929 0.343115 0.300325 -0.924305 0.235512 0.212056 -0.915043 0.343115 
0.392638 -0.783843 0.481067 0.481533 -0.792649 0.373943 0.935787 0.0810863 0.343115 
0.971871 6e-08 0.235512 0.935787 -0.0810863 0.343115 0.624147 0.615642 -0.481067 
0.562275 0.571252 -0.597928 0.666777 0.484442 -0.566326 -0.392638 0.783843 -0.481067 
-0.36954 0.711282 -0.597928 -0.254686 0.783843 -0.566326 -0.866811 -0.131201 -0.481067 
-0.790663 -0.131656 -0.597928 -0.824181 -2.16e-07 -0.566326 -0.14308 -0.864929 -0.481067 
-0.119117 -0.792649 -0.597928 -0.254686 -0.783843 -0.566326 0.778383 -0.403355 -0.481067 
0.717045 -0.358229 -0.597928 0.666777 -0.484442 -0.566326 -0.516196 0.375039 0.769992 
-0.48446 0.516122 0.70634 -0.39847 0.453991 0.79694 0.0122828 0.46843 0.883415 
-0.0967772 0.564254 0.819909 0.0555202 0.601501 0.79694 0.088568 0.70231 0.70634 
0.197169 0.606825 0.769992 -0.516196 -0.375039 0.769992 -0.640567 -0.301259 0.70634 
-0.554905 -0.238677 0.79694 -0.441708 0.156434 0.883415 -0.566543 0.0823235 0.819909 
-0.554905 0.238677 0.79694 -0.640567 0.301259 0.70634 0.197169 -0.606825 0.769992 
0.088568 -0.70231 0.70634 0.0555203 -0.601501 0.79694 -0.285273 -0.371748 0.883415 
-0.253366 -0.513376 0.819909 -0.39847 -0.453991 0.79694 -0.48446 -0.516122 0.70634 
0.638054 0 0.769992 0.695305 -0.132792 0.70634 0.589218 -0.133071 0.79694 
0.265399 -0.386187 0.883415 0.409955 -0.399607 0.819909 0.308637 -0.519258 0.79694 
0.341154 -0.62024 0.70634 0.341154 0.62024 0.70634 0.308637 0.519258 0.79694 
0.449299 0.133071 0.883415 0.506732 0.266405 0.819909 0.589218 0.133071 0.79694 
0.695305 0.132792 0.70634 0.64084 0.758652 -0.117349 0.753039 0.647412 -0.11743 
0.707107 0.707107 0 0.687976 0.601501 0.406061 0.776629 0.564254 0.280114 
0.784658 0.46843 0.406061 0.850924 0.346153 0.395103 0.762697 0.383614 0.520705 
-0.0725259 0.990439 -0.117349 -0.00276249 0.966393 -0.257056 0.0699595 0.987688 -0.139919 
0.45399 0.891007 0 0.383206 0.912983 -0.140057 0.52395 0.840178 -0.139919 
0.570266 0.780204 -0.257056 -0.391553 0.758652 0.520705 -0.484949 0.780204 0.395103 
-0.359465 0.840178 0.406061 -0.0699597 0.987688 0.139919 -0.226617 0.963861 0.140057 
-0.156435 0.987688 0 -0.228683 0.966393 -0.11743 -0.964375 0.237086 -0.117349 
-0.919948 0.296004 -0.257056 -0.917729 0.371748 -0.139919 -0.707107 0.707107 0 
-0.749881 0.646578 -0.140057 -0.637147 0.757935 -0.139919 -0.565797 0.783452 -0.257056 
-0.523491 0.843911 -0.117349 -0.842518 -0.137952 0.520705 -0.891876 -0.220117 0.395103 
-0.910137 -0.0822426 0.406061 -0.960966 0.238677 0.139919 -0.986715 0.0823234 0.140057 
-0.987688 0.156434 0 -0.989761 0.0811416 -0.11743 -0.523491 -0.843912 -0.117349 
-0.565796 -0.783452 -0.257056 -0.637147 -0.757935 -0.139919 -0.891006 -0.453991 0 
-0.846658 -0.513376 -0.140057 -0.917729 -0.371748 -0.139919 -0.919948 -0.296005 -0.257056 
-0.964375 -0.237087 -0.117349 -0.129152 -0.843912 0.520704 -0.066261 -0.916244 0.395103 
-0.203031 -0.891007 0.406061 -0.52395 -0.840178 0.139919 -0.383206 -0.912983 0.140057 
-0.45399 -0.891007 0 -0.383023 -0.916244 -0.11743 0.64084 -0.758652 -0.117349 
0.570266 -0.780204 -0.257056 0.52395 -0.840178 -0.139919 0.156435 -0.987688 0 
0.226617 -0.963861 -0.140057 0.0699597 -0.987688 -0.139919 -0.00276224 -0.966393 -0.257056 
-0.0725257 -0.990439 -0.117349 0.762697 -0.383614 0.520705 0.850924 -0.346153 0.395103 
0.784658 -0.46843 0.406061 0.637147 -0.757935 0.139919 0.749881 -0.646578 0.140057 
0.707107 -0.707107 0 0.753039 -0.647412 -0.11743 0.919552 0.375039 -0.117349 
0.91824 0.301259 -0.257056 0.960966 0.238677 -0.139919 0.987688 -0.156434 0 
0.986715 -0.0823234 -0.140057 0.960966 -0.238677 -0.139919 0.91824 -0.301259 -0.257056 
0.919552 -0.375038 -0.117349 0.129152 0.843911 -0.520705 0.023114 0.783452 -0.621023 
0.159793 0.757935 -0.632456 0.39847 0.453991 -0.79694 0.253366 0.513376 -0.819909 
0.285273 0.371748 -0.883415 0.181495 0.296005 -0.937785 0.326321 0.237086 -0.915043 
-0.762697 0.383614 -0.520705 -0.737964 0.264083 -0.621023 -0.671461 0.386187 -0.632455 
-0.308637 0.519258 -0.79694 -0.409955 0.399607 -0.819909 -0.265399 0.386187 -0.883415 
-0.225432 0.264083 -0.937785 -0.124644 0.383614 -0.915043 -0.600525 -0.606825 -0.520704 
-0.479201 -0.62024 -0.621023 -0.574779 -0.519259 -0.632456 -0.589218 -0.133071 -0.79694 
-0.506732 -0.266405 -0.819909 -0.449299 -0.133071 -0.883415 -0.32082 -0.132793 -0.937785 
-0.403355 -1.06e-07 -0.915043 0.391553 -0.758652 -0.520705 0.441802 -0.647412 -0.621023 
0.316228 -0.707107 -0.632456 -0.0555202 -0.601501 -0.79694 0.0967773 -0.564254 -0.819909 
-0.0122828 -0.46843 -0.883415 0.0271544 -0.346153 -0.937785 -0.124644 -0.383614 -0.915043 
0.842518 0.137952 -0.520704 0.752249 0.220117 -0.621023 0.770218 0.0822426 -0.632456 
[...]
POINT_DATA 642
SCALARS double double
LOOKUP_TABLE default
-0.311363 -0.884372 0.640781 -0.679677 0.370759 0.868231 -0.142634 1.74331 -0.963079 
0.644363 -0.809228 -0.118618 -0.295462 -0.223436 0.684152 0.418127 -0.516316 -1.18154 
-0.0809725 -0.789506 0.648945 0.695502 0.660919 -0.129232 -0.870005 0.0136957 0.962514 
1.64173 1.76268 0.171178 0.0482777 0.288605 -0.0931262 0.412479 -0.384673 -0.253607 
0.898755 -2.00755 2.01277 -0.208143 -0.40322 0.999192 0.784698 -0.505421 0.543801 
0.452117 1.09291 -0.306894 0.770242 -0.467715 -1.19609 -0.727344 -0.850618 0.930671 
-1.03227 -0.256613 -1.43083 -0.227343 0.0235111 -0.873087 0.460683 -0.72005 -0.404815 
-0.583595 -0.609229 0.482225 -0.959018 1.57443 0.504313 -0.843879 -1.16477 -0.488898 
-0.111804 0.0445125 0.0989005 -0.531161 0.0628969 -0.279628 0.783873 -0.243387 1.04307 
-0.0686959 -0.336673 0.855522 0.287652 1.03293 -0.364998 -0.395948 -0.671848 0.638948 
-0.19707 -0.296343 0.740265 0.890317 1.03101 -0.16617 -0.175377 0.522458 1.14107 
-0.490041 0.381392 -1.07017 -0.938186 0.446571 0.758184 1.07183 1.69291 -0.135753 
-0.049613 -1.32751 -0.0953387 1.10541 -0.307456 0.158253 -0.36366 0.256603 -0.859928 
-0.389493 0.462922 -0.933013 -0.164694 -0.817881 1.93603 1.54613 -0.487414 2.33853 
1.47252 -0.754138 1.10769 0.0495475 0.350978 1.0753 0.428184 0.606965 0.988791 
0.46262 0.558804 1.83045 0.151457 -0.595788 -0.23329 1.0647 -0.377168 0.357677 
-0.511754 0.273539 -0.618076 0.11692 -0.0697792 -0.665605 -0.364112 -0.505377 -0.545873 
-0.13387 -0.501 -0.576226 0.280297 0.449464 0.415627 0.499624 1.60807 0.248873 
1.00706 1.28825 0.97845 -0.326662 -0.200527 -0.661539 0.438763 0.102442 -0.399166 
0.414075 -1.27893 -0.975952 -1.35963 -0.449689 -1.22221 0.16992 -0.0206704 -1.07894 
-1.24074 0.232741 -0.630992 -1.19601 -0.259903 -0.935003 -0.382877 1.38312 0.707798 
-1.11478 -0.231548 -1.15397 0.297781 -0.145509 0.12622 0.124609 0.121128 -0.691424 
-0.51619 -1.3502 0.339312 0.453272 -0.310452 -0.307333 1.09191 -0.425516 0.0909496 
-0.729895 -0.156752 1.73089 0.389146 0.0247716 0.787778 0.714674 0.339788 -0.266794 
0.10587 -0.277354 0.181638 0.163088 -0.637558 -0.454225 0.0602828 0.0475357 1.04008 
-0.275801 -0.0931273 -1.45893 -0.640032 -0.494901 0.317384 -0.257149 -0.331542 0.631895 
0.232625 0.455774 -0.234905 -1.44621 -1.26982 -1.44561 -1.13486 -0.559222 -0.0671792 
-1.23238 -1.05523 -0.338041 0.30974 0.194542 -0.480855 0.126607 0.914686 0.63861 
0.861149 0.585044 1.01331 -0.697569 0.279639 0.280323 -0.737995 -1.14084 -0.137549 
-0.153462 -0.238024 0.00588026 0.113434 -0.508333 -0.0555743 -0.502671 -1.23459 2.69564 
1.86446 2.63486 0.222713 1.54413 1.76688 1.7863 1.9189 0.121941 0.318032 
-0.541755 0.602769 0.0368507 1.63791 2.21145 -0.150733 -0.254445 -0.315489 -0.287008 
0.836758 -0.389328 -0.479966 0.402973 -0.353853 0.307384 0.573732 -0.372048 0.707878 
0.494903 -0.0759378 1.53513 0.689531 1.18739 -0.592783 -0.91797 -0.0382605 0.297472 
0.58682 1.55337 0.961384 1.06402 -0.813214 -0.223319 0.0703475 1.03474 -0.0047671 
0.109633 -0.0601642 -0.43147 -0.818079 -0.684254 -0.248246 -0.710262 -0.23474 0.0279021 
0.501692 1.7031 1.54212 1.27212 -0.807024 0.00444917 0.726626 -0.907634 -0.17928 
-1.3081 -1.23059 -1.61336 -0.911691 -1.5168 0.554675 0.0948789 -0.241068 0.0954411 
-0.234401 -0.5332 -0.295226 -0.236639 0.410148 -0.00592364 -0.604677 -0.229179 0.316013 
-0.11171 0.341085 -0.0923282 0.374249 0.64276 1.38506 0.2138 0.101905 0.957525 
0.987021 1.20616 -0.0461872 -0.298557 -0.152216 0.0968076 0.831206 1.12611 1.04084 
-0.167876 -0.274018 0.063376 0.243017 0.994538 1.37521 -1.30681 -0.729504 -1.16577 
-1.13831 0.168243 0.00596516 -0.245257 0.342558 1.12802 0.810761 0.0697945 -0.165947 
-0.299947 -0.375241 -0.66326 -1.40651 -0.118739 0.375432 -0.0694086 -0.1303 0.435454 
1.50934 -0.257065 -1.06275 -0.184067 -0.576701 -0.930655 -1.25318 -0.691574 -0.379162 
-0.0604914 -0.445213 -0.255901 -0.562703 0.684471 0.470426 0.737928 0.488357 -0.66374 
0.449985 -0.0932206 -0.313648 -0.453783 0.0640187 0.420547 0.115378 -0.672238 -0.264103 
-0.330465 -0.290075 -0.0659333 -0.0359334 0.182067 0.77833 0.313359 0.43497 1.51374 
2.0539 1.02086 1.50624 0.685572 -0.496957 1.18737 0.352503 1.49758 1.5338 
1.1276 -1.34801 -1.30173 -1.29024 -0.847638 -0.172166 0.0423372 0.396135 0.275282 
-0.442479 0.228191 0.697109 1.06729 1.54894 1.13534 0.560342 0.396606 0.931866 
0.220114 0.23865 0.697903 -0.110862 1.68459 1.01524 1.17154 0.213593 -0.158009 
0.987629 0.958577 0.550633 0.163174 -0.542119 0.139871 -0.795254 -0.718157 -0.613597 
0.606244 -0.11642 0.919595 1.34255 1.64246 1.79605 1.40249 1.46623 1.62315 
1.22844 1.12079 -0.324518 -0.0436058 0.512219 -0.59072 -0.191334 -1.05309 -1.38579 
-0.573383 -1.02415 -0.888275 0.0664319 0.7202 1.14603 0.711456 -0.348355 -0.247328 
-0.302619 -0.244605 -0.209941 0.345234 -0.128282 -0.263745 0.193524 0.339638 0.612121 
0.203528 -0.591897 -0.0135101 -0.208535 -0.260861 -0.356047 -0.458663 -0.648051 -0.341128 
-0.174119 -0.932074 -0.532439 0.458117 -0.705598 -0.0678179 0.522495 0.169893 1.24068 
0.553765 -0.67256 0.212226 1.23461 2.18234 2.04666 1.72954 2.10168 1.2201 
0.981557 -0.2196 -0.651526 -0.16938 -1.14483 -0.66387 0.963738 1.47693 1.06045 
-0.41541 0.237904 0.363657 1.1326 0.414641 0.338421 0.677979 1.40042 1.06033 
0.738278 -0.397305 -0.194587 0.0815547 0.110372 1.19867 1.05783 0.538466 0.00380397 
-0.324288 -0.109917 1.90433 0.217281 0.0929495 -0.571277 -0.481857 -0.62155 -1.00678 
-0.986144 -0.438874 0.193892 0.54944 0.14661 0.0380454 0.907107 0.490143 -0.431389 
-0.201241 1.44351 1.86907 -1.42617 -0.48858 -0.139795 0.54735 -0.229377 -0.0689884 
0.20874 -0.129716 0.658148 -0.425428 -0.456399 -0.731782 0.642175 0.470038 -1.28929 
-0.862038 -0.0289871 -0.156155 0.135996 -0.708271 0.347467 0.465218 -0.918145 -0.448566 
-0.408065 0.0413994 -0.560164 0.273568 -0.224962 -0.0247401 0.498753 -0.500902 -0.186852 
0.159034 0.199315 0.502486 -0.0825406 -0.405414 0.451738 1.22512 -0.448293 0.413776 
1.05726 0.38724 0.267579 0.0738458 -0.637288 1.12457 1.97196 0.766114 0.950546 
0.73358 -0.197753 0.589543 
