# vtk DataFile Version 3.0
vtk output
ASCII
DATASET POLYDATA
POINTS 642 float
0 0 1 0.276393 -0.850651 0.447214 0.894427 0 0.447214 
0.276393 0.850651 0.447214 -0.723607 0.525731 0.447214 -0.723607 -0.525731 0.447214 
-0.276393 -0.850651 -0.447214 0.723607 -0.525731 -0.447214 0.723607 0.525731 -0.447214 
-0.276393 0.850651 -0.447214 -0.894427 -2.35e-07 -0.447214 0 0 -1 
-0.425325 0.309017 0.850651 -0.262866 0.809017 0.525731 0.16246 0.5 0.850651 
-0.425325 -0.309017 0.850651 -0.850651 -1.05e-07 0.525731 0.16246 -0.5 0.850651 
-0.262866 -0.809017 0.525731 0.525731 0 0.850651 0.688191 -0.5 0.525731 
0.688191 0.5 0.525731 0.587785 0.809017 0 0.951057 0.309017 0 
-1.23e-07 1 0 0.262865 0.809017 -0.525731 -0.587785 0.809017 0 
-0.951057 0.309017 0 -0.688191 0.5 -0.525731 -0.951056 -0.309017 0 
-0.587785 -0.809017 0 -0.688191 -0.5 -0.525731 5.3e-08 -1 0 
0.587785 -0.809017 0 0.262866 -0.809017 -0.525731 0.951057 -0.309017 0 
0.850651 1.75e-07 -0.525731 -0.16246 0.5 -0.850651 0.425325 0.309017 -0.850651 
-0.525731 -1.38e-07 -0.850651 -0.16246 -0.5 -0.850651 0.425325 -0.309017 -0.850651 
-0.221077 0.160622 0.961938 -0.138197 0.425325 0.894427 0.084444 0.259892 0.961938 
-0.221077 -0.160622 0.961938 -0.447214 -4.7e-08 0.894427 0.084444 -0.259892 0.961938 
-0.138197 -0.425325 0.894427 0.273267 0 0.961938 0.361803 -0.262866 0.894427 
0.361803 0.262866 0.894427 0.449186 0.862668 0.232454 0.67082 0.688191 0.276393 
0.501375 0.702046 0.505721 0.143665 0.961938 0.232454 0.309017 0.951057 0 
0.00703141 0.862668 0.505721 -0.138197 0.951057 0.276393 -0.870463 0.433888 0.232454 
-0.809017 0.587785 0 -0.68164 0.69378 0.232454 -0.818274 0.273266 0.505721 
-0.947214 0.16246 0.276393 -0.68164 -0.693781 0.232454 -0.809017 -0.587785 0 
-0.870463 -0.433889 0.232454 -0.512752 -0.693781 0.505721 -0.447214 -0.850651 0.276393 
0.449186 -0.862668 0.232454 0.309017 -0.951057 0 0.143665 -0.961938 0.232454 
0.501375 -0.702046 0.505721 0.67082 -0.688191 0.276393 0.959253 0.160622 0.232454 
1 1.1e-07 0 0.959253 -0.160622 0.232454 0.512752 0.693781 -0.505721 
0.361803 0.587785 -0.723607 0.597196 0.433889 -0.674609 -0.501375 0.702046 -0.505721 
-0.447214 0.525731 -0.723607 -0.228109 0.702046 -0.674609 -0.822619 -0.259892 -0.505721 
-0.638197 -0.262866 -0.723607 -0.738175 -1.94e-07 -0.674609 -0.00703132 -0.862668 -0.505721 
0.0527865 -0.688191 -0.723607 -0.228109 -0.702046 -0.674609 0.818274 -0.273266 -0.505721 
0.67082 -0.16246 -0.723607 0.597196 -0.433888 -0.674609 -0.597196 0.433889 0.674609 
-0.512752 0.69378 0.505721 -0.361803 0.587785 0.723607 -0.0527864 0.688191 0.723607 
0.228109 0.702046 0.674609 -0.597196 -0.433889 0.674609 -0.818274 -0.273267 0.505721 
-0.67082 -0.16246 0.723607 -0.67082 0.16246 0.723607 0.228109 -0.702046 0.674609 
0.00703146 -0.862668 0.505721 -0.0527864 -0.688191 0.723607 -0.361803 -0.587785 0.723607 
0.738175 0 0.674609 0.822619 -0.259892 0.505721 0.638197 -0.262866 0.723607 
0.447214 -0.525731 0.723607 0.447214 0.525731 0.723607 0.638197 0.262866 0.723607 
0.822619 0.259892 0.505721 0.68164 0.693781 -0.232454 0.870463 0.433889 -0.232454 
0.809017 0.587785 0 0.861803 0.425325 0.276393 -0.143665 0.961938 -0.232454 
-0.00703163 0.862668 -0.505721 0.138196 0.951057 -0.276393 0.447213 0.850651 -0.276393 
-0.447214 0.850651 0.276393 -0.309017 0.951056 0 -0.449186 0.862668 -0.232454 
-0.959253 0.160622 -0.232454 -0.822619 0.259892 -0.505721 -0.861803 0.425325 -0.276393 
-0.670821 0.688191 -0.276393 -0.947214 -0.16246 0.276393 -1 -2.04e-07 0 
-0.959253 -0.160622 -0.232454 -0.449186 -0.862669 -0.232454 -0.501375 -0.702047 -0.505721 
-0.67082 -0.688191 -0.276393 -0.861803 -0.425326 -0.276393 -0.138197 -0.951057 0.276393 
-0.309017 -0.951057 0 -0.143665 -0.961938 -0.232454 0.68164 -0.69378 -0.232454 
0.512752 -0.69378 -0.505721 0.447214 -0.850651 -0.276393 0.138197 -0.951057 -0.276393 
0.861803 -0.425325 0.276393 0.809017 -0.587785 0 0.870463 -0.433888 -0.232454 
0.818274 0.273267 -0.505721 0.947214 0.16246 -0.276393 0.947214 -0.16246 -0.276393 
0.0527863 0.688191 -0.723607 0.138197 0.425325 -0.894427 -0.0844441 0.259892 -0.961938 
0.221077 0.160622 -0.961938 -0.638197 0.262865 -0.723607 -0.361803 0.262865 -0.894427 
-0.273267 -7.2e-08 -0.961938 -0.447214 -0.525731 -0.723607 -0.361803 -0.262866 -0.894427 
-0.084444 -0.259892 -0.961938 0.361803 -0.587785 -0.723607 0.138197 -0.425325 -0.894427 
0.221077 -0.160622 -0.961938 0.67082 0.16246 -0.723607 0.447214 9.4e-08 -0.894427 
-0.111606 0.0810863 0.990439 -0.0692153 0.213023 0.974593 0.0426296 0.1312 0.990439 
-0.111606 -0.0810863 0.990439 -0.223985 -2.3e-08 0.974593 0.0426296 -0.1312 0.990439 
-0.0692153 -0.213023 0.974593 0.137952 0 0.990439 0.181208 -0.131655 0.974593 
0.181208 0.131655 0.974593 0.366292 0.864929 0.343115 0.481533 0.792649 0.373943 
0.392638 0.783843 0.481067 0.212056 0.915043 0.343115 0.300325 0.924305 0.235512 
0.14308 0.864929 0.481067 0.0763392 0.924305 0.373943 -0.804729 0.484442 0.343115 
-0.786261 0.571252 0.235512 -0.709406 0.615642 0.343115 -0.778382 0.403355 0.481067 
-0.855476 0.358229 0.373943 -0.709406 -0.615642 0.343115 -0.78626 -0.571252 0.235512 
-0.804729 -0.484442 0.343115 -0.624147 -0.615642 0.481067 -0.605052 -0.702907 0.373943 
0.366292 -0.864929 0.343115 0.300325 -0.924305 0.235512 0.212056 -0.915043 0.343115 
0.392638 -0.783843 0.481067 0.481533 -0.792649 0.373943 0.935787 0.0810863 0.343115 
0.971871 6e-08 0.235512 0.935787 -0.0810863 0.343115 0.624147 0.615642 -0.481067 
0.562275 0.571252 -0.597928 0.666777 0.484442 -0.566326 -0.392638 0.783843 -0.481067 
-0.36954 0.711282 -0.597928 -0.254686 0.783843 -0.566326 -0.866811 -0.131201 -0.481067 
-0.790663 -0.131656 -0.597928 -0.824181 -2.16e-07 -0.566326 -0.14308 -0.864929 -0.481067 
-0.119117 -0.792649 -0.597928 -0.254686 -0.783843 -0.566326 0.778383 -0.403355 -0.481067 
0.717045 -0.358229 -0.597928 0.666777 -0.484442 -0.566326 -0.516196 0.375039 0.769992 
-0.48446 0.516122 0.70634 -0.39847 0.453991 0.79694 0.0122828 0.46843 0.883415 
-0.0967772 0.564254 0.819909 0.0555202 0.601501 0.79694 0.088568 0.70231 0.70634 
0.197169 0.606825 0.769992 -0.516196 -0.375039 0.769992 -0.640567 -0.301259 0.70634 
-0.554905 -0.238677 0.79694 -0.441708 0.156434 0.883415 -0.566543 0.0823235 0.819909 
-0.554905 0.238677 0.79694 -0.640567 0.301259 0.70634 0.197169 -0.606825 0.769992 
0.088568 -0.70231 0.70634 0.0555203 -0.601501 0.79694 -0.285273 -0.371748 0.883415 
-0.253366 -0.513376 0.819909 -0.39847 -0.453991 0.79694 -0.48446 -0.516122 0.70634 
0.638054 0 0.769992 0.695305 -0.132792 0.70634 0.589218 -0.133071 0.79694 
0.265399 -0.386187 0.883415 0.409955 -0.399607 0.819909 0.308637 -0.519258 0.79694 
0.341154 -0.62024 0.70634 0.341154 0.62024 0.70634 0.308637 0.519258 0.79694 
0.449299 0.133071 0.883415 0.506732 0.266405 0.819909 0.589218 0.133071 0.79694 
0.695305 0.132792 0.70634 0.64084 0.758652 -0.117349 0.753039 0.647412 -0.11743 
0.707107 0.707107 0 0.687976 0.601501 0.406061 0.776629 0.564254 0.280114 
0.784658 0.46843 0.406061 0.850924 0.346153 0.395103 0.762697 0.383614 0.520705 
-0.0725259 0.990439 -0.117349 -0.00276249 0.966393 -0.257056 0.0699595 0.987688 -0.139919 
0.45399 0.891007 0 0.383206 0.912983 -0.140057 0.52395 0.840178 -0.139919 
0.570266 0.780204 -0.257056 -0.391553 0.758652 0.520705 -0.484949 0.780204 0.395103 
-0.359465 0.840178 0.406061 -0.0699597 0.987688 0.139919 -0.226617 0.963861 0.140057 
-0.156435 0.987688 0 -0.228683 0.966393 -0.11743 -0.964375 0.237086 -0.117349 
-0.919948 0.296004 -0.257056 -0.917729 0.371748 -0.139919 -0.707107 0.707107 0 
-0.749881 0.646578 -0.140057 -0.637147 0.757935 -0.139919 -0.565797 0.783452 -0.257056 
-0.523491 0.843911 -0.117349 -0.842518 -0.137952 0.520705 -0.891876 -0.220117 0.395103 
-0.910137 -0.0822426 0.406061 -0.960966 0.238677 0.139919 -0.986715 0.0823234 0.140057 
-0.987688 0.156434 0 -0.989761 0.0811416 -0.11743 -0.523491 -0.843912 -0.117349 
-0.565796 -0.783452 -0.257056 -0.637147 -0.757935 -0.139919 -0.891006 -0.453991 0 
-0.846658 -0.513376 -0.140057 -0.917729 -0.371748 -0.139919 -0.919948 -0.296005 -0.257056 
-0.964375 -0.237087 -0.117349 -0.129152 -0.843912 0.520704 -0.066261 -0.916244 0.395103 
-0.203031 -0.891007 0.406061 -0.52395 -0.840178 0.139919 -0.383206 -0.912983 0.140057 
-0.45399 -0.891007 0 -0.383023 -0.916244 -0.11743 0.64084 -0.758652 -0.117349 
0.570266 -0.780204 -0.257056 0.52395 -0.840178 -0.139919 0.156435 -0.987688 0 
0.226617 -0.963861 -0.140057 0.0699597 -0.987688 -0.139919 -0.00276224 -0.966393 -0.257056 
-0.0725257 -0.990439 -0.117349 0.762697 -0.383614 0.520705 0.850924 -0.346153 0.395103 
0.784658 -0.46843 0.406061 0.637147 -0.757935 0.139919 0.749881 -0.646578 0.140057 
0.707107 -0.707107 0 0.753039 -0.647412 -0.11743 0.919552 0.375039 -0.117349 
0.91824 0.301259 -0.257056 0.960966 0.238677 -0.139919 0.987688 -0.156434 0 
0.986715 -0.0823234 -0.140057 0.960966 -0.238677 -0.139919 0.91824 -0.301259 -0.257056 
0.919552 -0.375038 -0.117349 0.129152 0.843911 -0.520705 0.023114 0.783452 -0.621023 
0.159793 0.757935 -0.632456 0.39847 0.453991 -0.79694 0.253366 0.513376 -0.819909 
0.285273 0.371748 -0.883415 0.181495 0.296005 -0.937785 0.326321 0.237086 -0.915043 
-0.762697 0.383614 -0.520705 -0.737964 0.264083 -0.621023 -0.671461 0.386187 -0.632455 
-0.308637 0.519258 -0.79694 -0.409955 0.399607 -0.819909 -0.265399 0.386187 -0.883415 
-0.225432 0.264083 -0.937785 -0.124644 0.383614 -0.915043 -0.600525 -0.606825 -0.520704 
-0.479201 -0.62024 -0.621023 -0.574779 -0.519259 -0.632456 -0.589218 -0.133071 -0.79694 
-0.506732 -0.266405 -0.819909 -0.449299 -0.133071 -0.883415 -0.32082 -0.132793 -0.937785 
-0.403355 -1.06e-07 -0.915043 0.391553 -0.758652 -0.520705 0.441802 -0.647412 -0.621023 
0.316228 -0.707107 -0.632456 -0.0555202 -0.601501 -0.79694 0.0967773 -0.564254 -0.819909 
-0.0122828 -0.46843 -0.883415 0.0271544 -0.346153 -0.937785 -0.124644 -0.383614 -0.915043 
0.842518 0.137952 -0.520704 0.752249 0.220117 -0.621023 0.770218 0.0822426 -0.632456 
[...]
POINT_DATA 642
SCALARS double double
LOOKUP_TABLE default
0.161355 -0.557748 1.10273 0.505766 -0.860212 0.445017 0.502948 2.29562 -0.547729 
0.75485 0.184396 0.267843 -0.119636 0.385421 0.950779 0.309513 0.100058 -0.0414193 
1.30954 -0.505407 0.304509 -0.730117 -0.280051 -0.20873 -0.504628 -0.026447 -0.739866 
1.51014 1.84821 0.643339 0.40721 -0.035605 0.262649 0.936621 -0.533813 -0.146622 
0.100349 -0.494011 0.727557 -0.409254 -0.0490521 0.506917 -0.412496 0.785407 1.15537 
0.582907 0.645256 0.36302 0.526766 -1.24851 -1.57951 -0.177488 -1.13943 -0.274384 
-0.487821 0.44594 -0.381952 -0.0474241 -0.018342 -1.07888 0.562235 -0.276171 -0.738015 
-0.0515917 -0.4484 0.055418 -0.767409 1.82664 -0.268922 0.132275 -1.18716 0.37518 
-0.548939 -0.447662 0.125962 -0.313592 0.0157127 -0.610368 0.26483 -0.402143 1.19025 
1.15032 0.308586 0.435875 0.0691066 -0.0765844 -1.12565 0.190454 -0.305557 0.0401408 
0.713704 -0.570488 -0.426335 1.00077 0.734414 -0.607811 1.46576 0.156656 -0.65024 
0.618131 0.334178 -0.640915 -0.0282909 -0.68166 0.0172719 0.0562489 1.3916 1.01942 
0.539414 -0.522072 -0.863694 0.860908 0.196951 -0.270969 0.463647 0.733076 -0.954289 
-0.524706 -0.370398 -1.23552 0.00690031 -0.504054 1.83573 2.53516 0.319766 2.2475 
1.5868 -0.477043 0.763836 1.15343 -0.209073 1.01963 0.432182 0.00975312 1.26035 
-0.131409 0.362196 0.750428 -0.434772 -0.708884 -0.753971 0.842126 0.13249 -0.268549 
-0.634208 0.172476 -0.62246 -0.16462 0.650349 -1.28128 0.936329 -0.693219 -1.06086 
-0.605216 -0.480161 -0.271707 0.629867 -0.00128065 0.49018 0.050748 -0.228543 1.30386 
-0.133605 0.122385 -0.258251 1.07626 0.813729 0.773338 0.610317 -0.416994 -0.213225 
0.0650126 -0.0467926 -1.01947 0.00377518 0.583797 -0.131668 0.224879 0.406327 -1.38519 
-1.24502 -0.861783 -0.290379 -1.28693 0.690385 -0.270889 -0.723911 1.37794 1.37518 
-0.503355 0.16445 0.716963 -1.24671 -1.15113 0.472296 0.140672 0.325305 -0.103552 
-0.241896 -0.345118 1.64954 0.665104 1.08517 -0.761638 -0.264228 -0.759961 -0.16366 
-0.826897 -0.690529 1.49656 0.797054 0.807743 -0.288501 0.365188 0.581365 0.112772 
-0.603494 0.0466173 0.703406 1.28434 1.30873 1.2368 0.355856 0.855763 0.742596 
0.905492 0.209728 -0.0589562 -0.844276 -0.901351 0.305705 0.47562 1.24842 0.159314 
-0.629311 0.527559 0.11311 -1.20701 -0.949338 -0.168723 0.622091 0.434384 0.615093 
-0.024423 -0.245854 -0.386615 -0.370532 0.683314 0.159328 0.730625 -0.559887 0.572713 
0.0634976 0.727141 -0.0895903 -0.609283 -0.823451 -0.843687 -1.10719 -1.35228 -0.381061 
0.544554 1.83924 1.39226 0.747823 -0.14456 0.603338 0.229129 -0.609134 2.62826 
2.64423 2.31092 -0.940646 0.985622 0.142301 1.62015 0.615252 0.0804018 -0.607947 
-0.442471 0.650441 0.342699 1.65317 2.11399 0.110369 0.400499 0.979624 -0.496138 
0.50421 -0.181987 -0.0487518 1.19774 0.280569 0.367178 0.855482 -0.997141 -0.679232 
-0.527395 -0.52345 0.148172 -0.178207 -0.775052 -0.938578 -0.67046 -0.496262 -0.494642 
-0.134051 0.5822 0.411813 0.346171 0.739549 -0.172723 1.47046 1.15277 -0.1871 
-0.0121055 -0.0408018 -0.464733 -0.480861 -0.801845 -0.540794 -0.380975 0.46644 -0.853475 
-0.276477 0.393472 0.644653 0.973446 1.72789 2.03815 1.62774 -0.286222 1.29493 
0.364374 0.282714 -0.635644 -1.71126 -0.849251 -0.063715 -0.0995491 -0.632741 0.111747 
-0.616484 -0.487772 0.0191015 -0.717827 -0.46831 -0.245923 -0.571095 -0.337675 0.76749 
-0.0995147 -0.0904173 0.329963 -0.469137 -1.1715 -0.167701 -0.24036 1.24759 0.0448022 
-0.108139 0.678825 -0.332822 0.450102 0.622237 1.34205 1.28761 -0.492441 -0.506909 
0.576615 0.439662 -0.296189 0.190416 0.0167424 -0.121406 -1.20343 -0.596437 -1.6041 
-0.747412 0.345362 0.658558 -0.49503 -1.25307 -0.00517449 -1.23961 -1.16561 -0.976856 
-0.0231694 0.397779 0.192569 -0.755893 -0.637547 -0.580359 -0.2711 -0.140916 0.229226 
1.30121 0.0379286 -1.09096 -0.825092 -0.455005 -0.750255 -0.450323 -0.483493 -0.444157 
0.840045 -0.559746 -0.84841 0.0704895 1.99064 1.5722 1.38314 -0.844741 0.802297 
-0.257126 0.23041 -1.04377 -0.269808 0.383489 0.118249 -0.567781 -0.275709 0.0839289 
-0.29376 0.0336892 0.215413 0.0650273 -1.0208 -0.352497 -0.677682 -0.00697783 -0.431485 
1.19506 1.75955 0.964102 0.248832 -0.422233 0.805368 -0.364591 -0.0187468 0.579678 
0.571604 -1.0195 -0.446819 -0.800475 -0.713366 -0.450494 0.339061 0.773489 0.286974 
-0.155223 -0.0812813 -0.400726 -0.322832 -0.384071 0.706215 1.40968 0.814215 0.0819134 
-0.0340936 -0.178403 0.886207 0.972143 -0.115284 -0.766876 -0.232763 0.949017 0.931646 
-0.462308 0.07108 -0.0859848 -0.0513494 0.257796 -0.749128 0.167015 -0.335252 -0.328473 
0.140197 -0.532206 -0.220161 0.743116 0.259396 0.097609 1.15956 1.53259 1.54384 
1.78945 1.18191 -0.114275 0.673266 1.19945 0.819235 -0.444452 -0.071331 -0.370194 
-0.898823 -0.63655 -0.657464 -0.798501 -0.105771 0.345328 0.971917 -0.252315 -0.446713 
-0.471652 -0.180701 0.223952 0.738533 0.682933 0.486169 0.573511 0.754488 -0.737674 
-0.616975 -0.522277 0.51632 0.363141 -0.380405 -0.898555 -0.835137 -0.649281 0.430925 
0.945799 0.555281 -0.794674 0.23126 -0.551409 -0.447573 0.263819 -0.0588689 1.61216 
1.69557 0.692194 1.3052 1.90405 1.81058 1.91026 1.89644 1.49414 1.78204 
2.31498 -0.828662 -0.289237 0.724392 -0.88058 -0.330506 1.38134 1.82978 2.03581 
0.781115 0.506446 0.0572256 1.01967 0.149517 0.416051 1.21267 1.24417 0.961822 
0.276324 -0.184817 0.914913 1.29107 1.08829 0.51988 1.08687 0.0926719 -0.293017 
0.15194 0.939647 2.06877 0.894995 1.18864 -0.0155442 0.085018 -0.815369 -0.593643 
-0.00177727 -0.896743 0.167262 0.388515 0.205637 0.0905871 0.452498 0.0714938 -0.168878 
0.0669721 0.93386 1.11357 -0.388131 -0.151605 -0.104521 0.150205 -0.105566 0.25482 
0.219562 -0.337205 -0.0387349 -0.0265927 -0.0087575 -0.179169 0.360479 0.465073 -0.0504333 
0.57925 -0.182736 -0.633967 -0.692418 -0.420655 -0.771952 0.265838 0.729907 -0.367385 
-0.49694 -1.0825 -0.60453 0.09303 0.441675 0.600297 0.766127 -0.635135 -0.600325 
0.648027 0.47533 0.259607 0.691349 -0.760882 -0.0901847 0.293409 0.30687 0.80462 
1.12274 0.481061 0.00988994 -0.132126 -0.899601 -1.27535 0.0826007 1.2517 1.33973 
1.74533 1.48622 -0.458169 
